; UNL_GMX.itp created by acpype (v: 2023.10.27) on Tue Jun 23 23:40:48 2026

[ atomtypes ]
;name   bond_type     mass     charge   ptype   sigma         epsilon       Amb
 i        i           0.00000  0.00000   A     3.83086e-01   2.09200e+00 ; 2.15  0.5000
 os       os          0.00000  0.00000   A     3.00001e-01   7.11280e-01 ; 1.68  0.1700
 o        o           0.00000  0.00000   A     2.95992e-01   8.78640e-01 ; 1.66  0.2100
 oh       oh          0.00000  0.00000   A     3.06647e-01   8.80314e-01 ; 1.72  0.2104
 n3       n3          0.00000  0.00000   A     3.25000e-01   7.11280e-01 ; 1.82  0.1700
 c3       c3          0.00000  0.00000   A     3.39967e-01   4.57730e-01 ; 1.91  0.1094
 ca       ca          0.00000  0.00000   A     3.39967e-01   3.59824e-01 ; 1.91  0.0860
 c        c           0.00000  0.00000   A     3.39967e-01   3.59824e-01 ; 1.91  0.0860
 ho       ho          0.00000  0.00000   A     0.00000e+00   0.00000e+00 ; 0.00  0.0000
 hn       hn          0.00000  0.00000   A     1.06908e-01   6.56888e-02 ; 0.60  0.0157
 hc       hc          0.00000  0.00000   A     2.64953e-01   6.56888e-02 ; 1.49  0.0157
 h1       h1          0.00000  0.00000   A     2.47135e-01   6.56888e-02 ; 1.39  0.0157
 ha       ha          0.00000  0.00000   A     2.59964e-01   6.27600e-02 ; 1.46  0.0150

[ moleculetype ]
;name            nrexcl
 UNL              3

[ atoms ]
;   nr  type  resi  res  atom  cgnr     charge      mass       ; qtot   bond_type
     1    i     1   MOL    I1    1    -0.144900    126.90000 ; qtot -0.145
     2    i     1   MOL    I2    2    -0.144900    126.90000 ; qtot -0.290
     3    i     1   MOL    I3    3    -0.130400    126.90000 ; qtot -0.420
     4    i     1   MOL    I4    4    -0.130400    126.90000 ; qtot -0.551
     5   os     1   MOL    O1    5    -0.242200     16.00000 ; qtot -0.793
     6    o     1   MOL    O2    6    -0.837800     16.00000 ; qtot -1.631
     7    o     1   MOL    O3    7    -0.837800     16.00000 ; qtot -2.468
     8   oh     1   MOL    O4    8    -0.489100     16.00000 ; qtot -2.957
     9   n3     1   MOL    N1    9    -0.892800     14.01000 ; qtot -3.850
    10   c3     1   MOL    C1   10    -0.032100     12.01000 ; qtot -3.882
    11   c3     1   MOL    C2   11     0.023500     12.01000 ; qtot -3.859
    12   ca     1   MOL    C3   12    -0.045300     12.01000 ; qtot -3.904
    13   ca     1   MOL    C4   13    -0.079000     12.01000 ; qtot -3.983
    14   ca     1   MOL    C5   14    -0.079000     12.01000 ; qtot -4.062
    15   ca     1   MOL    C6   15     0.106100     12.01000 ; qtot -3.956
    16   ca     1   MOL    C7   16     0.013900     12.01000 ; qtot -3.942
    17   ca     1   MOL    C8   17     0.013900     12.01000 ; qtot -3.928
    18    c     1   MOL    C9   18     0.883600     12.01000 ; qtot -3.045
    19   ca     1   MOL   C10   19     0.093100     12.01000 ; qtot -2.952
    20   ca     1   MOL   C11   20    -0.085000     12.01000 ; qtot -3.037
    21   ca     1   MOL   C12   21    -0.085000     12.01000 ; qtot -3.122
    22   ca     1   MOL   C13   22    -0.009100     12.01000 ; qtot -3.131
    23   ca     1   MOL   C14   23    -0.009100     12.01000 ; qtot -3.140
    24   ca     1   MOL   C15   24     0.158100     12.01000 ; qtot -2.982
    25   ho     1   MOL    H1   25     0.429000      1.00800 ; qtot -2.553
    26   hn     1   MOL    H2   26     0.336800      1.00800 ; qtot -2.216
    27   hn     1   MOL    H3   27     0.336800      1.00800 ; qtot -1.879
    28   hc     1   MOL    H4   28     0.056200      1.00800 ; qtot -1.823
    29   hc     1   MOL    H5   29     0.056200      1.00800 ; qtot -1.767
    30   h1     1   MOL    H6   30     0.047700      1.00800 ; qtot -1.719
    31   ha     1   MOL    H7   31     0.188000      1.00800 ; qtot -1.531
    32   ha     1   MOL    H8   32     0.188000      1.00800 ; qtot -1.343
    33   ha     1   MOL    H9   33     0.171500      1.00800 ; qtot -1.172
    34   ha     1   MOL   H10   34     0.171500      1.00800 ; qtot -1.000

[ bonds ]
;   ai     aj funct   r             k
     1     16   1    2.1288e-01    1.9656e+05 ;     I1 - C7    
     2     17   1    2.1288e-01    1.9656e+05 ;     I2 - C8    
     3     22   1    2.1288e-01    1.9656e+05 ;     I3 - C13   
     4     23   1    2.1288e-01    1.9656e+05 ;     I4 - C14   
     5     15   1    1.3696e-01    3.1514e+05 ;     O1 - C6    
     5     19   1    1.3696e-01    3.1514e+05 ;     O1 - C10   
     6     18   1    1.2183e-01    5.3363e+05 ;     O2 - C9    
     7     18   1    1.2183e-01    5.3363e+05 ;     O3 - C9    
     8     24   1    1.3637e-01    3.2133e+05 ;     O4 - C15   
     8     25   1    9.7300e-02    3.1079e+05 ;     O4 - H1    
     9     11   1    1.4647e-01    2.7271e+05 ;     N1 - C2    
     9     26   1    1.0190e-01    3.2836e+05 ;     N1 - H2    
     9     27   1    1.0190e-01    3.2836e+05 ;     N1 - H3    
    10     11   1    1.5375e-01    2.5179e+05 ;     C1 - C2    
    10     12   1    1.5156e-01    2.6861e+05 ;     C1 - C3    
    10     28   1    1.0969e-01    2.7665e+05 ;     C1 - H4    
    10     29   1    1.0969e-01    2.7665e+05 ;     C1 - H5    
    11     18   1    1.5241e-01    2.6192e+05 ;     C2 - C9    
    11     30   1    1.0969e-01    2.7665e+05 ;     C2 - H6    
    12     13   1    1.3984e-01    3.8585e+05 ;     C3 - C4    
    12     14   1    1.3984e-01    3.8585e+05 ;     C3 - C5    
    13     17   1    1.3984e-01    3.8585e+05 ;     C4 - C8    
    13     31   1    1.0860e-01    2.8937e+05 ;     C4 - H7    
    14     16   1    1.3984e-01    3.8585e+05 ;     C5 - C7    
    14     32   1    1.0860e-01    2.8937e+05 ;     C5 - H8    
    15     16   1    1.3984e-01    3.8585e+05 ;     C6 - C7    
    15     17   1    1.3984e-01    3.8585e+05 ;     C6 - C8    
    19     20   1    1.3984e-01    3.8585e+05 ;    C10 - C11   
    19     21   1    1.3984e-01    3.8585e+05 ;    C10 - C12   
    20     23   1    1.3984e-01    3.8585e+05 ;    C11 - C14   
    20     33   1    1.0860e-01    2.8937e+05 ;    C11 - H9    
    21     22   1    1.3984e-01    3.8585e+05 ;    C12 - C13   
    21     34   1    1.0860e-01    2.8937e+05 ;    C12 - H10   
    22     24   1    1.3984e-01    3.8585e+05 ;    C13 - C15   
    23     24   1    1.3984e-01    3.8585e+05 ;    C14 - C15   

[ pairs ]
;   ai     aj    funct
     1      5      1 ;     I1 - O1    
     1     12      1 ;     I1 - C3    
     1     17      1 ;     I1 - C8    
     1     32      1 ;     I1 - H8    
     2      5      1 ;     I2 - O1    
     2     12      1 ;     I2 - C3    
     2     16      1 ;     I2 - C7    
     2     31      1 ;     I2 - H7    
     3      8      1 ;     I3 - O4    
     3     19      1 ;     I3 - C10   
     3     23      1 ;     I3 - C14   
     3     34      1 ;     I3 - H10   
     4      8      1 ;     I4 - O4    
     4     19      1 ;     I4 - C10   
     4     22      1 ;     I4 - C13   
     4     33      1 ;     I4 - H9    
     5     13      1 ;     O1 - C4    
     5     14      1 ;     O1 - C5    
     5     22      1 ;     O1 - C13   
     5     23      1 ;     O1 - C14   
     5     33      1 ;     O1 - H9    
     5     34      1 ;     O1 - H10   
     6      9      1 ;     O2 - N1    
     6     10      1 ;     O2 - C1    
     6     30      1 ;     O2 - H6    
     7      9      1 ;     O3 - N1    
     7     10      1 ;     O3 - C1    
     7     30      1 ;     O3 - H6    
     8     20      1 ;     O4 - C11   
     8     21      1 ;     O4 - C12   
     9     12      1 ;     N1 - C3    
     9     28      1 ;     N1 - H4    
     9     29      1 ;     N1 - H5    
    10     16      1 ;     C1 - C7    
    10     17      1 ;     C1 - C8    
    10     26      1 ;     C1 - H2    
    10     27      1 ;     C1 - H3    
    10     31      1 ;     C1 - H7    
    10     32      1 ;     C1 - H8    
    11     13      1 ;     C2 - C4    
    11     14      1 ;     C2 - C5    
    12     15      1 ;     C3 - C6    
    12     18      1 ;     C3 - C9    
    12     30      1 ;     C3 - H6    
    13     16      1 ;     C4 - C7    
    13     28      1 ;     C4 - H4    
    13     29      1 ;     C4 - H5    
    13     32      1 ;     C4 - H8    
    14     17      1 ;     C5 - C8    
    14     28      1 ;     C5 - H4    
    14     29      1 ;     C5 - H5    
    14     31      1 ;     C5 - H7    
    15     20      1 ;     C6 - C11   
    15     21      1 ;     C6 - C12   
    15     31      1 ;     C6 - H7    
    15     32      1 ;     C6 - H8    
    16     19      1 ;     C7 - C10   
    17     19      1 ;     C8 - C10   
    18     26      1 ;     C9 - H2    
    18     27      1 ;     C9 - H3    
    18     28      1 ;     C9 - H4    
    18     29      1 ;     C9 - H5    
    19     24      1 ;    C10 - C15   
    20     22      1 ;    C11 - C13   
    20     34      1 ;    C11 - H10   
    21     23      1 ;    C12 - C14   
    21     33      1 ;    C12 - H9    
    22     25      1 ;    C13 - H1    
    23     25      1 ;    C14 - H1    
    24     33      1 ;    C15 - H9    
    24     34      1 ;    C15 - H10   
    26     30      1 ;     H2 - H6    
    27     30      1 ;     H3 - H6    
    28     30      1 ;     H4 - H6    
    29     30      1 ;     H5 - H6    

[ angles ]
;   ai     aj     ak    funct   theta         cth
     1     16     14      1    1.1911e+02    4.8116e+02 ;     I1 - C7     - C5    
     1     16     15      1    1.1911e+02    4.8116e+02 ;     I1 - C7     - C6    
     2     17     13      1    1.1911e+02    4.8116e+02 ;     I2 - C8     - C4    
     2     17     15      1    1.1911e+02    4.8116e+02 ;     I2 - C8     - C6    
     3     22     21      1    1.1911e+02    4.8116e+02 ;     I3 - C13    - C12   
     3     22     24      1    1.1911e+02    4.8116e+02 ;     I3 - C13    - C15   
     4     23     20      1    1.1911e+02    4.8116e+02 ;     I4 - C14    - C11   
     4     23     24      1    1.1911e+02    4.8116e+02 ;     I4 - C14    - C15   
     5     15     16      1    1.1920e+02    5.8241e+02 ;     O1 - C6     - C7    
     5     15     17      1    1.1920e+02    5.8241e+02 ;     O1 - C6     - C8    
     5     19     20      1    1.1920e+02    5.8241e+02 ;     O1 - C10    - C11   
     5     19     21      1    1.1920e+02    5.8241e+02 ;     O1 - C10    - C12   
     6     18      7      1    1.3025e+02    6.5187e+02 ;     O2 - C9     - O3    
     6     18     11      1    1.2320e+02    5.6400e+02 ;     O2 - C9     - C2    
     7     18     11      1    1.2320e+02    5.6400e+02 ;     O3 - C9     - C2    
     8     24     22      1    1.1990e+02    5.8158e+02 ;     O4 - C15    - C13   
     8     24     23      1    1.1990e+02    5.8158e+02 ;     O4 - C15    - C14   
     9     11     10      1    1.1104e+02    5.5229e+02 ;     N1 - C2     - C1    
     9     11     18      1    1.1114e+02    5.5480e+02 ;     N1 - C2     - C9    
     9     11     30      1    1.0988e+02    4.1422e+02 ;     N1 - C2     - H6    
    10     11     18      1    1.1104e+02    5.2969e+02 ;     C1 - C2     - C9    
    10     11     30      1    1.0956e+02    3.8828e+02 ;     C1 - C2     - H6    
    10     12     13      1    1.2077e+02    5.3137e+02 ;     C1 - C3     - C4    
    10     12     14      1    1.2077e+02    5.3137e+02 ;     C1 - C3     - C5    
    11      9     26      1    1.0929e+02    3.9664e+02 ;     C2 - N1     - H2    
    11      9     27      1    1.0929e+02    3.9664e+02 ;     C2 - N1     - H3    
    11     10     12      1    1.1207e+02    5.2802e+02 ;     C2 - C1     - C3    
    11     10     28      1    1.0980e+02    3.8744e+02 ;     C2 - C1     - H4    
    11     10     29      1    1.0980e+02    3.8744e+02 ;     C2 - C1     - H5    
    12     10     28      1    1.1047e+02    3.9162e+02 ;     C3 - C1     - H4    
    12     10     29      1    1.1047e+02    3.9162e+02 ;     C3 - C1     - H5    
    12     13     17      1    1.2002e+02    5.5731e+02 ;     C3 - C4     - C8    
    12     13     31      1    1.1988e+02    4.0334e+02 ;     C3 - C4     - H7    
    12     14     16      1    1.2002e+02    5.5731e+02 ;     C3 - C5     - C7    
    12     14     32      1    1.1988e+02    4.0334e+02 ;     C3 - C5     - H8    
    13     12     14      1    1.2002e+02    5.5731e+02 ;     C4 - C3     - C5    
    13     17     15      1    1.2002e+02    5.5731e+02 ;     C4 - C8     - C6    
    14     16     15      1    1.2002e+02    5.5731e+02 ;     C5 - C7     - C6    
    15      5     19      1    1.1989e+02    5.3137e+02 ;     C6 - O1     - C10   
    16     14     32      1    1.1988e+02    4.0334e+02 ;     C7 - C5     - H8    
    16     15     17      1    1.2002e+02    5.5731e+02 ;     C7 - C6     - C8    
    17     13     31      1    1.1988e+02    4.0334e+02 ;     C8 - C4     - H7    
    18     11     30      1    1.0822e+02    3.9330e+02 ;     C9 - C2     - H6    
    19     20     23      1    1.2002e+02    5.5731e+02 ;    C10 - C11    - C14   
    19     20     33      1    1.1988e+02    4.0334e+02 ;    C10 - C11    - H9    
    19     21     22      1    1.2002e+02    5.5731e+02 ;    C10 - C12    - C13   
    19     21     34      1    1.1988e+02    4.0334e+02 ;    C10 - C12    - H10   
    20     19     21      1    1.2002e+02    5.5731e+02 ;    C11 - C10    - C12   
    20     23     24      1    1.2002e+02    5.5731e+02 ;    C11 - C14    - C15   
    21     22     24      1    1.2002e+02    5.5731e+02 ;    C12 - C13    - C15   
    22     21     34      1    1.1988e+02    4.0334e+02 ;    C13 - C12    - H10   
    22     24     23      1    1.2002e+02    5.5731e+02 ;    C13 - C15    - C14   
    23     20     33      1    1.1988e+02    4.0334e+02 ;    C14 - C11    - H9    
    24      8     25      1    1.0858e+02    4.1003e+02 ;    C15 - O4     - H1    
    26      9     27      1    1.0640e+02    3.4644e+02 ;     H2 - N1     - H3    
    28     10     29      1    1.0758e+02    3.2970e+02 ;     H4 - C1     - H5    

[ dihedrals ] ; propers
; for gromacs 4.5 or higher, using funct 9
;    i      j      k      l   func   phase     kd      pn
     1     16     14     12      9   180.00  15.16700   2 ;     I1-    C7-    C5-    C3
     1     16     14     32      9   180.00  15.16700   2 ;     I1-    C7-    C5-    H8
     1     16     15      5      9   180.00  15.16700   2 ;     I1-    C7-    C6-    O1
     1     16     15     17      9   180.00  15.16700   2 ;     I1-    C7-    C6-    C8
     2     17     13     12      9   180.00  15.16700   2 ;     I2-    C8-    C4-    C3
     2     17     13     31      9   180.00  15.16700   2 ;     I2-    C8-    C4-    H7
     2     17     15      5      9   180.00  15.16700   2 ;     I2-    C8-    C6-    O1
     2     17     15     16      9   180.00  15.16700   2 ;     I2-    C8-    C6-    C7
     3     22     21     19      9   180.00  15.16700   2 ;     I3-   C13-   C12-   C10
     3     22     21     34      9   180.00  15.16700   2 ;     I3-   C13-   C12-   H10
     3     22     24      8      9   180.00  15.16700   2 ;     I3-   C13-   C15-    O4
     3     22     24     23      9   180.00  15.16700   2 ;     I3-   C13-   C15-   C14
     4     23     20     19      9   180.00  15.16700   2 ;     I4-   C14-   C11-   C10
     4     23     20     33      9   180.00  15.16700   2 ;     I4-   C14-   C11-    H9
     4     23     24      8      9   180.00  15.16700   2 ;     I4-   C14-   C15-    O4
     4     23     24     22      9   180.00  15.16700   2 ;     I4-   C14-   C15-   C13
     5     15     16     14      9   180.00  15.16700   2 ;     O1-    C6-    C7-    C5
     5     15     17     13      9   180.00  15.16700   2 ;     O1-    C6-    C8-    C4
     5     19     20     23      9   180.00  15.16700   2 ;     O1-   C10-   C11-   C14
     5     19     20     33      9   180.00  15.16700   2 ;     O1-   C10-   C11-    H9
     5     19     21     22      9   180.00  15.16700   2 ;     O1-   C10-   C12-   C13
     5     19     21     34      9   180.00  15.16700   2 ;     O1-   C10-   C12-   H10
     6     18     11      9      9   180.00   0.00000   2 ;     O2-    C9-    C2-    N1
     6     18     11     10      9   180.00   0.00000   2 ;     O2-    C9-    C2-    C1
     6     18     11     30      9     0.00   0.00000   0 ;     O2-    C9-    C2-    H6
     6     18     11     30      9     0.00   3.34720   1 ;     O2-    C9-    C2-    H6
     6     18     11     30      9   180.00   0.33472   3 ;     O2-    C9-    C2-    H6
     7     18     11      9      9   180.00   0.00000   2 ;     O3-    C9-    C2-    N1
     7     18     11     10      9   180.00   0.00000   2 ;     O3-    C9-    C2-    C1
     7     18     11     30      9     0.00   0.00000   0 ;     O3-    C9-    C2-    H6
     7     18     11     30      9     0.00   3.34720   1 ;     O3-    C9-    C2-    H6
     7     18     11     30      9   180.00   0.33472   3 ;     O3-    C9-    C2-    H6
     8     24     22     21      9   180.00  15.16700   2 ;     O4-   C15-   C13-   C12
     8     24     23     20      9   180.00  15.16700   2 ;     O4-   C15-   C14-   C11
     9     11     10     12      9     0.00   0.65084   3 ;     N1-    C2-    C1-    C3
     9     11     10     28      9     0.00   0.65084   3 ;     N1-    C2-    C1-    H4
     9     11     10     29      9     0.00   0.65084   3 ;     N1-    C2-    C1-    H5
    10     11      9     26      9     0.00   1.25520   3 ;     C1-    C2-    N1-    H2
    10     11      9     27      9     0.00   1.25520   3 ;     C1-    C2-    N1-    H3
    10     12     13     17      9   180.00  15.16700   2 ;     C1-    C3-    C4-    C8
    10     12     13     31      9   180.00  15.16700   2 ;     C1-    C3-    C4-    H7
    10     12     14     16      9   180.00  15.16700   2 ;     C1-    C3-    C5-    C7
    10     12     14     32      9   180.00  15.16700   2 ;     C1-    C3-    C5-    H8
    11     10     12     13      9     0.00   0.00000   0 ;     C2-    C1-    C3-    C4
    11     10     12     14      9     0.00   0.00000   0 ;     C2-    C1-    C3-    C5
    12     10     11     18      9     0.00   0.65084   3 ;     C3-    C1-    C2-    C9
    12     10     11     30      9     0.00   0.65084   3 ;     C3-    C1-    C2-    H6
    12     13     17     15      9   180.00  15.16700   2 ;     C3-    C4-    C8-    C6
    12     14     16     15      9   180.00  15.16700   2 ;     C3-    C5-    C7-    C6
    13     12     10     28      9     0.00   0.00000   0 ;     C4-    C3-    C1-    H4
    13     12     10     29      9     0.00   0.00000   0 ;     C4-    C3-    C1-    H5
    13     12     14     16      9   180.00  15.16700   2 ;     C4-    C3-    C5-    C7
    13     12     14     32      9   180.00  15.16700   2 ;     C4-    C3-    C5-    H8
    13     17     15     16      9   180.00  15.16700   2 ;     C4-    C8-    C6-    C7
    14     12     10     28      9     0.00   0.00000   0 ;     C5-    C3-    C1-    H4
    14     12     10     29      9     0.00   0.00000   0 ;     C5-    C3-    C1-    H5
    14     12     13     17      9   180.00  15.16700   2 ;     C5-    C3-    C4-    C8
    14     12     13     31      9   180.00  15.16700   2 ;     C5-    C3-    C4-    H7
    14     16     15     17      9   180.00  15.16700   2 ;     C5-    C7-    C6-    C8
    15      5     19     20      9   180.00   3.76560   2 ;     C6-    O1-   C10-   C11
    15      5     19     21      9   180.00   3.76560   2 ;     C6-    O1-   C10-   C12
    15     16     14     32      9   180.00  15.16700   2 ;     C6-    C7-    C5-    H8
    15     17     13     31      9   180.00  15.16700   2 ;     C6-    C8-    C4-    H7
    16     15      5     19      9   180.00   3.76560   2 ;     C7-    C6-    O1-   C10
    17     15      5     19      9   180.00   3.76560   2 ;     C8-    C6-    O1-   C10
    18     11      9     26      9     0.00   1.25520   3 ;     C9-    C2-    N1-    H2
    18     11      9     27      9     0.00   1.25520   3 ;     C9-    C2-    N1-    H3
    18     11     10     28      9     0.00   0.65084   3 ;     C9-    C2-    C1-    H4
    18     11     10     29      9     0.00   0.65084   3 ;     C9-    C2-    C1-    H5
    19     20     23     24      9   180.00  15.16700   2 ;    C10-   C11-   C14-   C15
    19     21     22     24      9   180.00  15.16700   2 ;    C10-   C12-   C13-   C15
    20     19     21     22      9   180.00  15.16700   2 ;    C11-   C10-   C12-   C13
    20     19     21     34      9   180.00  15.16700   2 ;    C11-   C10-   C12-   H10
    20     23     24     22      9   180.00  15.16700   2 ;    C11-   C14-   C15-   C13
    21     19     20     23      9   180.00  15.16700   2 ;    C12-   C10-   C11-   C14
    21     19     20     33      9   180.00  15.16700   2 ;    C12-   C10-   C11-    H9
    21     22     24     23      9   180.00  15.16700   2 ;    C12-   C13-   C15-   C14
    22     24      8     25      9   180.00   3.76560   2 ;    C13-   C15-    O4-    H1
    23     24      8     25      9   180.00   3.76560   2 ;    C14-   C15-    O4-    H1
    24     22     21     34      9   180.00  15.16700   2 ;    C15-   C13-   C12-   H10
    24     23     20     33      9   180.00  15.16700   2 ;    C15-   C14-   C11-    H9
    26      9     11     30      9     0.00   1.25520   3 ;     H2-    N1-    C2-    H6
    27      9     11     30      9     0.00   1.25520   3 ;     H3-    N1-    C2-    H6
    28     10     11     30      9     0.00   0.65084   3 ;     H4-    C1-    C2-    H6
    29     10     11     30      9     0.00   0.65084   3 ;     H5-    C1-    C2-    H6

[ dihedrals ] ; impropers
; treated as propers in GROMACS to use correct AMBER analytical function
;    i      j      k      l   func   phase     kd      pn
     1     16     15     14      4   180.00   4.60240   2 ;     I1-    C7-    C6-    C5
    11      6     18      7      4   180.00   4.60240   2 ;     C2-    O2-    C9-    O3
    12     16     14     32      4   180.00   4.60240   2 ;     C3-    C7-    C5-    H8
    12     17     13     31      4   180.00   4.60240   2 ;     C3-    C8-    C4-    H7
    13     14     12     10      4   180.00   4.60240   2 ;     C4-    C5-    C3-    C1
    13     15     17      2      4   180.00   4.60240   2 ;     C4-    C6-    C8-    I2
    16     17     15      5      4   180.00   4.60240   2 ;     C7-    C8-    C6-    O1
    19     22     21     34      4   180.00   4.60240   2 ;    C10-   C13-   C12-   H10
    19     23     20     33      4   180.00   4.60240   2 ;    C10-   C14-   C11-    H9
    20     21     19      5      4   180.00   4.60240   2 ;    C11-   C12-   C10-    O1
    20     24     23      4      4   180.00   4.60240   2 ;    C11-   C15-   C14-    I4
    21     24     22      3      4   180.00   4.60240   2 ;    C12-   C15-   C13-    I3
    22     23     24      8      4   180.00   4.60240   2 ;    C13-   C14-   C15-    O4
