UNL_GMX.gro created by acpype (v: 2023.10.27) on Tue Jun 23 23:40:48 2026
 34
    1  MOL   I1    1   3.527   3.821   2.115
    1  MOL   I2    2   3.501   3.205   2.067
    1  MOL   I3    3   3.199   3.756   2.582
    1  MOL   I4    4   3.072   3.204   2.353
    1  MOL   O1    5   3.495   3.491   2.206
    1  MOL   O2    6   3.380   3.399   1.370
    1  MOL   O3    7   3.332   3.335   1.582
    1  MOL   O4    8   3.050   3.473   2.535
    1  MOL   N1    9   3.277   3.598   1.636
    1  MOL   C1   10   3.523   3.558   1.638
    1  MOL   C2   11   3.396   3.563   1.551
    1  MOL   C3   12   3.506   3.537   1.788
    1  MOL   C4   13   3.506   3.412   1.848
    1  MOL   C5   14   3.503   3.651   1.870
    1  MOL   C6   15   3.492   3.513   2.071
    1  MOL   C7   16   3.500   3.639   2.010
    1  MOL   C8   17   3.497   3.400   1.988
    1  MOL   C9   18   3.369   3.425   1.488
    1  MOL  C10   19   3.381   3.501   2.283
    1  MOL  C11   20   3.300   3.387   2.280
    1  MOL  C12   21   3.345   3.610   2.363
    1  MOL  C13   22   3.235   3.599   2.449
    1  MOL  C14   23   3.188   3.378   2.362
    1  MOL  C15   24   3.156   3.483   2.449
    1  MOL   H1   25   2.994   3.392   2.535
    1  MOL   H2   26   3.303   3.591   1.735
    1  MOL   H3   27   3.248   3.695   1.615
    1  MOL   H4   28   3.576   3.653   1.624
    1  MOL   H5   29   3.575   3.468   1.604
    1  MOL   H6   30   3.411   3.639   1.472
    1  MOL   H7   31   3.513   3.321   1.786
    1  MOL   H8   32   3.502   3.751   1.824
    1  MOL   H9   33   3.325   3.304   2.212
    1  MOL  H10   34   3.402   3.703   2.358
   11.63600    12.32600    24.24600
