UNL_GMX.gro created by acpype (v: 2023.10.27) on Tue Jun 23 14:30:03 2026
 31
    1  MOL   O1    1   3.451   3.705   1.852
    1  MOL   O2    2   3.792   3.695   1.965
    1  MOL   O3    3   3.694   3.460   1.529
    1  MOL   O4    4   3.225   3.547   1.482
    1  MOL   O5    5   3.463   4.061   2.372
    1  MOL   C1    6   3.579   3.585   1.696
    1  MOL   C2    7   3.459   3.642   1.744
    1  MOL   C3    8   3.555   3.730   1.922
    1  MOL   C4    9   3.530   3.816   2.040
    1  MOL   C5   10   3.694   3.602   1.772
    1  MOL   C6   11   3.681   3.676   1.886
    1  MOL   C7   12   3.577   3.515   1.574
    1  MOL   C8   13   3.342   3.627   1.670
    1  MOL   C9   14   3.343   3.557   1.549
    1  MOL  C10   15   3.460   3.500   1.500
    1  MOL  C11   16   3.465   3.940   2.025
    1  MOL  C12   17   3.572   3.780   2.169
    1  MOL  C13   18   3.441   4.024   2.135
    1  MOL  C14   19   3.548   3.863   2.279
    1  MOL  C15   20   3.483   3.984   2.262
    1  MOL   H1   21   3.879   3.657   1.938
    1  MOL   H2   22   3.696   3.410   1.443
    1  MOL   H3   23   3.222   3.498   1.396
    1  MOL   H4   24   3.494   4.029   2.461
    1  MOL   H5   25   3.790   3.559   1.741
    1  MOL   H6   26   3.248   3.671   1.707
    1  MOL   H7   27   3.460   3.445   1.405
    1  MOL   H8   28   3.433   3.973   1.925
    1  MOL   H9   29   3.625   3.684   2.184
    1  MOL  H10   30   3.389   4.120   2.122
    1  MOL  H11   31   3.581   3.832   2.380
   13.14200    14.19400    21.29800
