; UNL_GMX.itp created by acpype (v: 2023.10.27) on Tue Jun 23 14:30:03 2026

[ atomtypes ]
;name   bond_type     mass     charge   ptype   sigma         epsilon       Amb
 os       os          0.00000  0.00000   A     3.00001e-01   7.11280e-01 ; 1.68  0.1700
 oh       oh          0.00000  0.00000   A     3.06647e-01   8.80314e-01 ; 1.72  0.2104
 ca       ca          0.00000  0.00000   A     3.39967e-01   3.59824e-01 ; 1.91  0.0860
 cc       cc          0.00000  0.00000   A     3.39967e-01   3.59824e-01 ; 1.91  0.0860
 cd       cd          0.00000  0.00000   A     3.39967e-01   3.59824e-01 ; 1.91  0.0860
 ho       ho          0.00000  0.00000   A     0.00000e+00   0.00000e+00 ; 0.00  0.0000
 ha       ha          0.00000  0.00000   A     2.59964e-01   6.27600e-02 ; 1.46  0.0150

[ moleculetype ]
;name            nrexcl
 UNL              3

[ atoms ]
;   nr  type  resi  res  atom  cgnr     charge      mass       ; qtot   bond_type
     1   os     1   MOL    O1    1    -0.332800     16.00000 ; qtot -0.333
     2   oh     1   MOL    O2    2    -0.478100     16.00000 ; qtot -0.811
     3   oh     1   MOL    O3    3    -0.474100     16.00000 ; qtot -1.285
     4   oh     1   MOL    O4    4    -0.450100     16.00000 ; qtot -1.735
     5   oh     1   MOL    O5    5    -0.454100     16.00000 ; qtot -2.189
     6   ca     1   MOL    C1    6    -0.242300     12.01000 ; qtot -2.432
     7   ca     1   MOL    C2    7     0.401000     12.01000 ; qtot -2.031
     8   cc     1   MOL    C3    8     0.583200     12.01000 ; qtot -1.447
     9   ca     1   MOL    C4    9    -0.291500     12.01000 ; qtot -1.739
    10   cd     1   MOL    C5   10     0.012000     12.01000 ; qtot -1.727
    11   cd     1   MOL    C6   11    -0.072200     12.01000 ; qtot -1.799
    12   ca     1   MOL    C7   12     0.254100     12.01000 ; qtot -1.545
    13   ca     1   MOL    C8   13    -0.277300     12.01000 ; qtot -1.822
    14   ca     1   MOL    C9   14     0.263100     12.01000 ; qtot -1.559
    15   ca     1   MOL   C10   15    -0.317000     12.01000 ; qtot -1.876
    16   ca     1   MOL   C11   16     0.005500     12.01000 ; qtot -1.871
    17   ca     1   MOL   C12   17     0.005500     12.01000 ; qtot -1.865
    18   ca     1   MOL   C13   18    -0.213000     12.01000 ; qtot -2.078
    19   ca     1   MOL   C14   19    -0.213000     12.01000 ; qtot -2.291
    20   ca     1   MOL   C15   20     0.234100     12.01000 ; qtot -2.057
    21   ho     1   MOL    H1   21     0.449000      1.00800 ; qtot -1.608
    22   ho     1   MOL    H2   22     0.459000      1.00800 ; qtot -1.149
    23   ho     1   MOL    H3   23     0.453000      1.00800 ; qtot -0.696
    24   ho     1   MOL    H4   24     0.450000      1.00800 ; qtot -0.246
    25   ha     1   MOL    H5   25     0.194000      1.00800 ; qtot -0.052
    26   ha     1   MOL    H6   26     0.199000      1.00800 ; qtot 0.147
    27   ha     1   MOL    H7   27     0.171000      1.00800 ; qtot 0.318
    28   ha     1   MOL    H8   28     0.167500      1.00800 ; qtot 0.485
    29   ha     1   MOL    H9   29     0.167500      1.00800 ; qtot 0.653
    30   ha     1   MOL   H10   30     0.173500      1.00800 ; qtot 0.826
    31   ha     1   MOL   H11   31     0.173500      1.00800 ; qtot 1.000

[ bonds ]
;   ai     aj funct   r             k
     1      7   1    1.3696e-01    3.1514e+05 ;     O1 - C2    
     1      8   1    1.3620e-01    3.2309e+05 ;     O1 - C3    
     2     11   1    1.3470e-01    3.3966e+05 ;     O2 - C6    
     2     21   1    9.7300e-02    3.1079e+05 ;     O2 - H1    
     3     12   1    1.3637e-01    3.2133e+05 ;     O3 - C7    
     3     22   1    9.7300e-02    3.1079e+05 ;     O3 - H2    
     4     14   1    1.3637e-01    3.2133e+05 ;     O4 - C9    
     4     23   1    9.7300e-02    3.1079e+05 ;     O4 - H3    
     5     20   1    1.3637e-01    3.2133e+05 ;     O5 - C15   
     5     24   1    9.7300e-02    3.1079e+05 ;     O5 - H4    
     6      7   1    1.3984e-01    3.8585e+05 ;     C1 - C2    
     6     10   1    1.4555e-01    3.2225e+05 ;     C1 - C5    
     6     12   1    1.3984e-01    3.8585e+05 ;     C1 - C7    
     7     13   1    1.3984e-01    3.8585e+05 ;     C2 - C8    
     8      9   1    1.4555e-01    3.2225e+05 ;     C3 - C4    
     8     11   1    1.3729e-01    4.1915e+05 ;     C3 - C6    
     9     16   1    1.3984e-01    3.8585e+05 ;     C4 - C11   
     9     17   1    1.3984e-01    3.8585e+05 ;     C4 - C12   
    10     11   1    1.4278e-01    3.5129e+05 ;     C5 - C6    
    10     25   1    1.0837e-01    2.9213e+05 ;     C5 - H5    
    12     15   1    1.3984e-01    3.8585e+05 ;     C7 - C10   
    13     14   1    1.3984e-01    3.8585e+05 ;     C8 - C9    
    13     26   1    1.0860e-01    2.8937e+05 ;     C8 - H6    
    14     15   1    1.3984e-01    3.8585e+05 ;     C9 - C10   
    15     27   1    1.0860e-01    2.8937e+05 ;    C10 - H7    
    16     18   1    1.3984e-01    3.8585e+05 ;    C11 - C13   
    16     28   1    1.0860e-01    2.8937e+05 ;    C11 - H8    
    17     19   1    1.3984e-01    3.8585e+05 ;    C12 - C14   
    17     29   1    1.0860e-01    2.8937e+05 ;    C12 - H9    
    18     20   1    1.3984e-01    3.8585e+05 ;    C13 - C15   
    18     30   1    1.0860e-01    2.8937e+05 ;    C13 - H10   
    19     20   1    1.3984e-01    3.8585e+05 ;    C14 - C15   
    19     31   1    1.0860e-01    2.8937e+05 ;    C14 - H11   

[ pairs ]
;   ai     aj    funct
     1      2      1 ;     O1 - O2    
     1     10      1 ;     O1 - C5    
     1     12      1 ;     O1 - C7    
     1     14      1 ;     O1 - C9    
     1     16      1 ;     O1 - C11   
     1     17      1 ;     O1 - C12   
     1     26      1 ;     O1 - H6    
     2      6      1 ;     O2 - C1    
     2      9      1 ;     O2 - C4    
     2     25      1 ;     O2 - H5    
     3      7      1 ;     O3 - C2    
     3     10      1 ;     O3 - C5    
     3     14      1 ;     O3 - C9    
     3     27      1 ;     O3 - H7    
     4      7      1 ;     O4 - C2    
     4     12      1 ;     O4 - C7    
     4     26      1 ;     O4 - H6    
     4     27      1 ;     O4 - H7    
     5     16      1 ;     O5 - C11   
     5     17      1 ;     O5 - C12   
     5     30      1 ;     O5 - H10   
     5     31      1 ;     O5 - H11   
     6     14      1 ;     C1 - C9    
     6     22      1 ;     C1 - H2    
     6     26      1 ;     C1 - H6    
     6     27      1 ;     C1 - H7    
     7      9      1 ;     C2 - C4    
     7     11      1 ;     C2 - C6    
     7     15      1 ;     C2 - C10   
     7     25      1 ;     C2 - H5    
     8      6      1 ;     C3 - C1    
     8     13      1 ;     C3 - C8    
     8     18      1 ;     C3 - C13   
     8     19      1 ;     C3 - C14   
     8     21      1 ;     C3 - H1    
     8     25      1 ;     C3 - H5    
     8     28      1 ;     C3 - H8    
     8     29      1 ;     C3 - H9    
     9     10      1 ;     C4 - C5    
     9     20      1 ;     C4 - C15   
     9     30      1 ;     C4 - H10   
     9     31      1 ;     C4 - H11   
    10     13      1 ;     C5 - C8    
    10     15      1 ;     C5 - C10   
    10     21      1 ;     C5 - H1    
    11     12      1 ;     C6 - C7    
    11     16      1 ;     C6 - C11   
    11     17      1 ;     C6 - C12   
    12     13      1 ;     C7 - C8    
    12     25      1 ;     C7 - H5    
    13     23      1 ;     C8 - H3    
    13     27      1 ;     C8 - H7    
    15     22      1 ;    C10 - H2    
    15     23      1 ;    C10 - H3    
    15     26      1 ;    C10 - H6    
    16     19      1 ;    C11 - C14   
    16     29      1 ;    C11 - H9    
    17     18      1 ;    C12 - C13   
    17     28      1 ;    C12 - H8    
    18     24      1 ;    C13 - H4    
    18     31      1 ;    C13 - H11   
    19     24      1 ;    C14 - H4    
    19     30      1 ;    C14 - H10   
    20     28      1 ;    C15 - H8    
    20     29      1 ;    C15 - H9    
    28     30      1 ;     H8 - H10   
    29     31      1 ;     H9 - H11   

[ angles ]
;   ai     aj     ak    funct   theta         cth
     1      7      6      1    1.1920e+02    5.8241e+02 ;     O1 - C2     - C1    
     1      7     13      1    1.1920e+02    5.8241e+02 ;     O1 - C2     - C8    
     1      8      9      1    1.1475e+02    5.8158e+02 ;     O1 - C3     - C4    
     1      8     11      1    1.2030e+02    5.8660e+02 ;     O1 - C3     - C6    
     2     11      8      1    1.2378e+02    5.8158e+02 ;     O2 - C6     - C3    
     2     11     10      1    1.2127e+02    5.7488e+02 ;     O2 - C6     - C5    
     3     12      6      1    1.1990e+02    5.8158e+02 ;     O3 - C7     - C1    
     3     12     15      1    1.1990e+02    5.8158e+02 ;     O3 - C7     - C10   
     4     14     13      1    1.1990e+02    5.8158e+02 ;     O4 - C9     - C8    
     4     14     15      1    1.1990e+02    5.8158e+02 ;     O4 - C9     - C10   
     5     20     18      1    1.1990e+02    5.8158e+02 ;     O5 - C15    - C13   
     5     20     19      1    1.1990e+02    5.8158e+02 ;     O5 - C15    - C14   
     6      7     13      1    1.2002e+02    5.5731e+02 ;     C1 - C2     - C8    
     6     10     11      1    1.1104e+02    5.6233e+02 ;     C1 - C5     - C6    
     6     10     25      1    1.2404e+02    3.8325e+02 ;     C1 - C5     - H5    
     6     12     15      1    1.2002e+02    5.5731e+02 ;     C1 - C7     - C10   
     7      1      8      1    1.1308e+02    5.4810e+02 ;     C2 - O1     - C3    
     7      6     10      1    1.2079e+02    5.4392e+02 ;     C2 - C1     - C5    
     7      6     12      1    1.2002e+02    5.5731e+02 ;     C2 - C1     - C7    
     7     13     14      1    1.2002e+02    5.5731e+02 ;     C2 - C8     - C9    
     7     13     26      1    1.1988e+02    4.0334e+02 ;     C2 - C8     - H6    
     8      9     16      1    1.2079e+02    5.4392e+02 ;     C3 - C4     - C11   
     8      9     17      1    1.2079e+02    5.4392e+02 ;     C3 - C4     - C12   
     8     11     10      1    1.1419e+02    5.7070e+02 ;     C3 - C6     - C5    
     9      8     11      1    1.1351e+02    5.6568e+02 ;     C4 - C3     - C6    
     9     16     18      1    1.2002e+02    5.5731e+02 ;     C4 - C11    - C13   
     9     16     28      1    1.1988e+02    4.0334e+02 ;     C4 - C11    - H8    
     9     17     19      1    1.2002e+02    5.5731e+02 ;     C4 - C12    - C14   
     9     17     29      1    1.1988e+02    4.0334e+02 ;     C4 - C12    - H9    
    10      6     12      1    1.2079e+02    5.4392e+02 ;     C5 - C1     - C7    
    11      2     21      1    1.0712e+02    4.1756e+02 ;     C6 - O2     - H1    
    11     10     25      1    1.2107e+02    3.9413e+02 ;     C6 - C5     - H5    
    12      3     22      1    1.0858e+02    4.1003e+02 ;     C7 - O3     - H2    
    12     15     14      1    1.2002e+02    5.5731e+02 ;     C7 - C10    - C9    
    12     15     27      1    1.1988e+02    4.0334e+02 ;     C7 - C10    - H7    
    13     14     15      1    1.2002e+02    5.5731e+02 ;     C8 - C9     - C10   
    14      4     23      1    1.0858e+02    4.1003e+02 ;     C9 - O4     - H3    
    14     13     26      1    1.1988e+02    4.0334e+02 ;     C9 - C8     - H6    
    14     15     27      1    1.1988e+02    4.0334e+02 ;     C9 - C10    - H7    
    16      9     17      1    1.2002e+02    5.5731e+02 ;    C11 - C4     - C12   
    16     18     20      1    1.2002e+02    5.5731e+02 ;    C11 - C13    - C15   
    16     18     30      1    1.1988e+02    4.0334e+02 ;    C11 - C13    - H10   
    17     19     20      1    1.2002e+02    5.5731e+02 ;    C12 - C14    - C15   
    17     19     31      1    1.1988e+02    4.0334e+02 ;    C12 - C14    - H11   
    18     16     28      1    1.1988e+02    4.0334e+02 ;    C13 - C11    - H8    
    18     20     19      1    1.2002e+02    5.5731e+02 ;    C13 - C15    - C14   
    19     17     29      1    1.1988e+02    4.0334e+02 ;    C14 - C12    - H9    
    20      5     24      1    1.0858e+02    4.1003e+02 ;    C15 - O5     - H4    
    20     18     30      1    1.1988e+02    4.0334e+02 ;    C15 - C13    - H10   
    20     19     31      1    1.1988e+02    4.0334e+02 ;    C15 - C14    - H11   

[ dihedrals ] ; propers
; for gromacs 4.5 or higher, using funct 9
;    i      j      k      l   func   phase     kd      pn
     1      7      6     10      9   180.00  15.16700   2 ;     O1-    C2-    C1-    C5
     1      7      6     12      9   180.00  15.16700   2 ;     O1-    C2-    C1-    C7
     1      7     13     14      9   180.00  15.16700   2 ;     O1-    C2-    C8-    C9
     1      7     13     26      9   180.00  15.16700   2 ;     O1-    C2-    C8-    H6
     1      8      9     16      9   180.00   2.92880   2 ;     O1-    C3-    C4-   C11
     1      8      9     17      9   180.00   2.92880   2 ;     O1-    C3-    C4-   C12
     1      8     11      2      9   180.00  16.73600   2 ;     O1-    C3-    C6-    O2
     1      8     11     10      9   180.00  16.73600   2 ;     O1-    C3-    C6-    C5
     2     11      8      9      9   180.00  16.73600   2 ;     O2-    C6-    C3-    C4
     2     11     10      6      9   180.00  16.73600   2 ;     O2-    C6-    C5-    C1
     2     11     10     25      9   180.00  16.73600   2 ;     O2-    C6-    C5-    H5
     3     12      6      7      9   180.00  15.16700   2 ;     O3-    C7-    C1-    C2
     3     12      6     10      9   180.00  15.16700   2 ;     O3-    C7-    C1-    C5
     3     12     15     14      9   180.00  15.16700   2 ;     O3-    C7-   C10-    C9
     3     12     15     27      9   180.00  15.16700   2 ;     O3-    C7-   C10-    H7
     4     14     13      7      9   180.00  15.16700   2 ;     O4-    C9-    C8-    C2
     4     14     13     26      9   180.00  15.16700   2 ;     O4-    C9-    C8-    H6
     4     14     15     12      9   180.00  15.16700   2 ;     O4-    C9-   C10-    C7
     4     14     15     27      9   180.00  15.16700   2 ;     O4-    C9-   C10-    H7
     5     20     18     16      9   180.00  15.16700   2 ;     O5-   C15-   C13-   C11
     5     20     18     30      9   180.00  15.16700   2 ;     O5-   C15-   C13-   H10
     5     20     19     17      9   180.00  15.16700   2 ;     O5-   C15-   C14-   C12
     5     20     19     31      9   180.00  15.16700   2 ;     O5-   C15-   C14-   H11
     6      7     13     14      9   180.00  15.16700   2 ;     C1-    C2-    C8-    C9
     6      7     13     26      9   180.00  15.16700   2 ;     C1-    C2-    C8-    H6
     6     10     11      8      9   180.00  16.73600   2 ;     C1-    C5-    C6-    C3
     6     12      3     22      9   180.00   3.76560   2 ;     C1-    C7-    O3-    H2
     6     12     15     14      9   180.00  15.16700   2 ;     C1-    C7-   C10-    C9
     6     12     15     27      9   180.00  15.16700   2 ;     C1-    C7-   C10-    H7
     7      1      8      9      9   180.00   4.39320   2 ;     C2-    O1-    C3-    C4
     7      1      8     11      9   180.00   4.39320   2 ;     C2-    O1-    C3-    C6
     7      6     10     11      9   180.00   2.92880   2 ;     C2-    C1-    C5-    C6
     7      6     10     25      9   180.00   2.92880   2 ;     C2-    C1-    C5-    H5
     7      6     12     15      9   180.00  15.16700   2 ;     C2-    C1-    C7-   C10
     7     13     14     15      9   180.00  15.16700   2 ;     C2-    C8-    C9-   C10
     8      1      7      6      9   180.00   3.76560   2 ;     C3-    O1-    C2-    C1
     8      1      7     13      9   180.00   3.76560   2 ;     C3-    O1-    C2-    C8
     8      9     16     18      9   180.00  15.16700   2 ;     C3-    C4-   C11-   C13
     8      9     16     28      9   180.00  15.16700   2 ;     C3-    C4-   C11-    H8
     8      9     17     19      9   180.00  15.16700   2 ;     C3-    C4-   C12-   C14
     8      9     17     29      9   180.00  15.16700   2 ;     C3-    C4-   C12-    H9
     8     11      2     21      9   180.00   4.39320   2 ;     C3-    C6-    O2-    H1
     8     11     10     25      9   180.00  16.73600   2 ;     C3-    C6-    C5-    H5
     9      8     11     10      9   180.00  16.73600   2 ;     C4-    C3-    C6-    C5
     9     16     18     20      9   180.00  15.16700   2 ;     C4-   C11-   C13-   C15
     9     16     18     30      9   180.00  15.16700   2 ;     C4-   C11-   C13-   H10
     9     17     19     20      9   180.00  15.16700   2 ;     C4-   C12-   C14-   C15
     9     17     19     31      9   180.00  15.16700   2 ;     C4-   C12-   C14-   H11
    10      6      7     13      9   180.00  15.16700   2 ;     C5-    C1-    C2-    C8
    10      6     12     15      9   180.00  15.16700   2 ;     C5-    C1-    C7-   C10
    10     11      2     21      9   180.00   4.39320   2 ;     C5-    C6-    O2-    H1
    11      8      9     16      9   180.00   2.92880   2 ;     C6-    C3-    C4-   C11
    11      8      9     17      9   180.00   2.92880   2 ;     C6-    C3-    C4-   C12
    11     10      6     12      9   180.00   2.92880   2 ;     C6-    C5-    C1-    C7
    12      6      7     13      9   180.00  15.16700   2 ;     C7-    C1-    C2-    C8
    12      6     10     25      9   180.00   2.92880   2 ;     C7-    C1-    C5-    H5
    12     15     14     13      9   180.00  15.16700   2 ;     C7-   C10-    C9-    C8
    13     14      4     23      9   180.00   3.76560   2 ;     C8-    C9-    O4-    H3
    13     14     15     27      9   180.00  15.16700   2 ;     C8-    C9-   C10-    H7
    15     12      3     22      9   180.00   3.76560   2 ;    C10-    C7-    O3-    H2
    15     14      4     23      9   180.00   3.76560   2 ;    C10-    C9-    O4-    H3
    15     14     13     26      9   180.00  15.16700   2 ;    C10-    C9-    C8-    H6
    16      9     17     19      9   180.00  15.16700   2 ;    C11-    C4-   C12-   C14
    16      9     17     29      9   180.00  15.16700   2 ;    C11-    C4-   C12-    H9
    16     18     20     19      9   180.00  15.16700   2 ;    C11-   C13-   C15-   C14
    17      9     16     18      9   180.00  15.16700   2 ;    C12-    C4-   C11-   C13
    17      9     16     28      9   180.00  15.16700   2 ;    C12-    C4-   C11-    H8
    17     19     20     18      9   180.00  15.16700   2 ;    C12-   C14-   C15-   C13
    18     20      5     24      9   180.00   3.76560   2 ;    C13-   C15-    O5-    H4
    18     20     19     31      9   180.00  15.16700   2 ;    C13-   C15-   C14-   H11
    19     20      5     24      9   180.00   3.76560   2 ;    C14-   C15-    O5-    H4
    19     20     18     30      9   180.00  15.16700   2 ;    C14-   C15-   C13-   H10
    20     18     16     28      9   180.00  15.16700   2 ;    C15-   C13-   C11-    H8
    20     19     17     29      9   180.00  15.16700   2 ;    C15-   C14-   C12-    H9
    28     16     18     30      9   180.00  15.16700   2 ;     H8-   C11-   C13-   H10
    29     17     19     31      9   180.00  15.16700   2 ;     H9-   C12-   C14-   H11

[ dihedrals ] ; impropers
; treated as propers in GROMACS to use correct AMBER analytical function
;    i      j      k      l   func   phase     kd      pn
     1      7     13      6      4   180.00   4.60240   2 ;     O1-    C2-    C8-    C1
     1      8     11      9      4   180.00   4.60240   2 ;     O1-    C3-    C6-    C4
     6     11     10     25      4   180.00   4.60240   2 ;     C1-    C6-    C5-    H5
     6     15     12      3      4   180.00   4.60240   2 ;     C1-   C10-    C7-    O3
     7     12      6     10      4   180.00   4.60240   2 ;     C2-    C7-    C1-    C5
     7     14     13     26      4   180.00   4.60240   2 ;     C2-    C9-    C8-    H6
     8     10     11      2      4   180.00   4.60240   2 ;     C3-    C5-    C6-    O2
     9     18     16     28      4   180.00   4.60240   2 ;     C4-   C13-   C11-    H8
     9     19     17     29      4   180.00   4.60240   2 ;     C4-   C14-   C12-    H9
    12     14     15     27      4   180.00   4.60240   2 ;     C7-    C9-   C10-    H7
    13     15     14      4      4   180.00   4.60240   2 ;     C8-   C10-    C9-    O4
    16     17      9      8      4   180.00   4.60240   2 ;    C11-   C12-    C4-    C3
    16     20     18     30      4   180.00   4.60240   2 ;    C11-   C15-   C13-   H10
    17     20     19     31      4   180.00   4.60240   2 ;    C12-   C15-   C14-   H11
    18     19     20      5      4   180.00   4.60240   2 ;    C13-   C14-   C15-    O5
