UNL_GMX.gro created by acpype (v: 2023.10.27) on Wed Jun 24 08:34:24 2026
 29
    1  MOL   O1    1   1.634  -1.230   6.017
    1  MOL   O2    2   1.289  -0.951   5.824
    1  MOL   O3    3   1.301  -1.220   5.784
    1  MOL   O4    4   1.630  -0.767   6.103
    1  MOL   C1    5   1.457  -1.096   5.917
    1  MOL   C2    6   1.572  -1.110   5.997
    1  MOL   C3    7   1.586  -1.341   5.951
    1  MOL   C4    8   1.402  -1.217   5.852
    1  MOL   C5    9   1.662  -1.464   5.975
    1  MOL   C6   10   1.400  -0.968   5.901
    1  MOL   C7   11   1.478  -1.342   5.872
    1  MOL   C8   12   1.628  -0.999   6.059
    1  MOL   C9   13   1.571  -0.873   6.041
    1  MOL  C10   14   1.457  -0.857   5.963
    1  MOL  C11   15   1.663  -1.566   5.878
    1  MOL  C12   16   1.731  -1.483   6.095
    1  MOL  C13   17   1.729  -1.686   5.904
    1  MOL  C14   18   1.798  -1.603   6.120
    1  MOL  C15   19   1.795  -1.705   6.025
    1  MOL   H1   20   1.249  -0.861   5.813
    1  MOL   H2   21   1.592  -0.676   6.092
    1  MOL   H3   22   1.446  -1.435   5.822
    1  MOL   H4   23   1.717  -1.010   6.123
    1  MOL   H5   24   1.413  -0.757   5.949
    1  MOL   H6   25   1.612  -1.550   5.782
    1  MOL   H7   26   1.734  -1.402   6.170
    1  MOL   H8   27   1.728  -1.766   5.828
    1  MOL   H9   28   1.852  -1.617   6.214
    1  MOL  H10   29   1.845  -1.801   6.046
   12.05400    22.49400     8.65000
