; UNL_GMX.itp created by acpype (v: 2023.10.27) on Wed Jun 24 08:34:24 2026

[ atomtypes ]
;name   bond_type     mass     charge   ptype   sigma         epsilon       Amb
 os       os          0.00000  0.00000   A     3.00001e-01   7.11280e-01 ; 1.68  0.1700
 oh       oh          0.00000  0.00000   A     3.06647e-01   8.80314e-01 ; 1.72  0.2104
 o        o           0.00000  0.00000   A     2.95992e-01   8.78640e-01 ; 1.66  0.2100
 ca       ca          0.00000  0.00000   A     3.39967e-01   3.59824e-01 ; 1.91  0.0860
 cc       cc          0.00000  0.00000   A     3.39967e-01   3.59824e-01 ; 1.91  0.0860
 c        c           0.00000  0.00000   A     3.39967e-01   3.59824e-01 ; 1.91  0.0860
 cd       cd          0.00000  0.00000   A     3.39967e-01   3.59824e-01 ; 1.91  0.0860
 ho       ho          0.00000  0.00000   A     0.00000e+00   0.00000e+00 ; 0.00  0.0000
 ha       ha          0.00000  0.00000   A     2.59964e-01   6.27600e-02 ; 1.46  0.0150

[ moleculetype ]
;name            nrexcl
 UNL              3

[ atoms ]
;   nr  type  resi  res  atom  cgnr     charge      mass       ; qtot   bond_type
     1   os     1   MOL    O1    1    -0.223200     16.00000 ; qtot -0.223
     2   oh     1   MOL    O2    2    -0.448100     16.00000 ; qtot -0.671
     3    o     1   MOL    O3    3    -0.525100     16.00000 ; qtot -1.196
     4   oh     1   MOL    O4    4    -0.485100     16.00000 ; qtot -1.682
     5   ca     1   MOL    C1    5    -0.277600     12.01000 ; qtot -1.959
     6   ca     1   MOL    C2    6     0.210100     12.01000 ; qtot -1.749
     7   cc     1   MOL    C3    7     0.185900     12.01000 ; qtot -1.563
     8    c     1   MOL    C4    8     0.595900     12.01000 ; qtot -0.967
     9   ca     1   MOL    C5    9    -0.075800     12.01000 ; qtot -1.043
    10   ca     1   MOL    C6   10     0.247100     12.01000 ; qtot -0.796
    11   cd     1   MOL    C7   11    -0.308200     12.01000 ; qtot -1.104
    12   ca     1   MOL    C8   12    -0.232000     12.01000 ; qtot -1.336
    13   ca     1   MOL    C9   13     0.216100     12.01000 ; qtot -1.120
    14   ca     1   MOL   C10   14    -0.349000     12.01000 ; qtot -1.469
    15   ca     1   MOL   C11   15    -0.093000     12.01000 ; qtot -1.562
    16   ca     1   MOL   C12   16    -0.093000     12.01000 ; qtot -1.655
    17   ca     1   MOL   C13   17    -0.136000     12.01000 ; qtot -1.791
    18   ca     1   MOL   C14   18    -0.136000     12.01000 ; qtot -1.927
    19   ca     1   MOL   C15   19    -0.109000     12.01000 ; qtot -2.036
    20   ho     1   MOL    H1   20     0.421000      1.00800 ; qtot -1.615
    21   ho     1   MOL    H2   21     0.427000      1.00800 ; qtot -1.188
    22   ha     1   MOL    H3   22     0.169000      1.00800 ; qtot -1.019
    23   ha     1   MOL    H4   23     0.173000      1.00800 ; qtot -0.846
    24   ha     1   MOL    H5   24     0.143000      1.00800 ; qtot -0.703
    25   ha     1   MOL    H6   25     0.145500      1.00800 ; qtot -0.558
    26   ha     1   MOL    H7   26     0.145500      1.00800 ; qtot -0.412
    27   ha     1   MOL    H8   27     0.138000      1.00800 ; qtot -0.274
    28   ha     1   MOL    H9   28     0.138000      1.00800 ; qtot -0.136
    29   ha     1   MOL   H10   29     0.136000      1.00800 ; qtot -0.000

[ bonds ]
;   ai     aj funct   r             k
     1      6   1    1.3696e-01    3.1514e+05 ;     O1 - C2    
     1      7   1    1.3620e-01    3.2309e+05 ;     O1 - C3    
     2     10   1    1.3637e-01    3.2133e+05 ;     O2 - C6    
     2     20   1    9.7300e-02    3.1079e+05 ;     O2 - H1    
     3      8   1    1.2183e-01    5.3363e+05 ;     O3 - C4    
     4     13   1    1.3637e-01    3.2133e+05 ;     O4 - C9    
     4     21   1    9.7300e-02    3.1079e+05 ;     O4 - H2    
     5      6   1    1.3984e-01    3.8585e+05 ;     C1 - C2    
     5      8   1    1.4906e-01    2.8945e+05 ;     C1 - C4    
     5     10   1    1.3984e-01    3.8585e+05 ;     C1 - C6    
     6     12   1    1.3984e-01    3.8585e+05 ;     C2 - C8    
     7      9   1    1.4555e-01    3.2225e+05 ;     C3 - C5    
     7     11   1    1.3729e-01    4.1915e+05 ;     C3 - C7    
     8     11   1    1.4676e-01    3.1045e+05 ;     C4 - C7    
     9     15   1    1.3984e-01    3.8585e+05 ;     C5 - C11   
     9     16   1    1.3984e-01    3.8585e+05 ;     C5 - C12   
    10     14   1    1.3984e-01    3.8585e+05 ;     C6 - C10   
    11     22   1    1.0837e-01    2.9213e+05 ;     C7 - H3    
    12     13   1    1.3984e-01    3.8585e+05 ;     C8 - C9    
    12     23   1    1.0860e-01    2.8937e+05 ;     C8 - H4    
    13     14   1    1.3984e-01    3.8585e+05 ;     C9 - C10   
    14     24   1    1.0860e-01    2.8937e+05 ;    C10 - H5    
    15     17   1    1.3984e-01    3.8585e+05 ;    C11 - C13   
    15     25   1    1.0860e-01    2.8937e+05 ;    C11 - H6    
    16     18   1    1.3984e-01    3.8585e+05 ;    C12 - C14   
    16     26   1    1.0860e-01    2.8937e+05 ;    C12 - H7    
    17     19   1    1.3984e-01    3.8585e+05 ;    C13 - C15   
    17     27   1    1.0860e-01    2.8937e+05 ;    C13 - H8    
    18     19   1    1.3984e-01    3.8585e+05 ;    C14 - C15   
    18     28   1    1.0860e-01    2.8937e+05 ;    C14 - H9    
    19     29   1    1.0860e-01    2.8937e+05 ;    C15 - H10   

[ pairs ]
;   ai     aj    funct
     1      8      1 ;     O1 - C4    
     1     10      1 ;     O1 - C6    
     1     13      1 ;     O1 - C9    
     1     15      1 ;     O1 - C11   
     1     16      1 ;     O1 - C12   
     1     22      1 ;     O1 - H3    
     1     23      1 ;     O1 - H4    
     2      6      1 ;     O2 - C2    
     2      8      1 ;     O2 - C4    
     2     13      1 ;     O2 - C9    
     2     24      1 ;     O2 - H5    
     3      6      1 ;     O3 - C2    
     3      7      1 ;     O3 - C3    
     3     10      1 ;     O3 - C6    
     3     22      1 ;     O3 - H3    
     4      6      1 ;     O4 - C2    
     4     10      1 ;     O4 - C6    
     4     23      1 ;     O4 - H4    
     4     24      1 ;     O4 - H5    
     5     13      1 ;     C1 - C9    
     5     20      1 ;     C1 - H1    
     5     22      1 ;     C1 - H3    
     5     23      1 ;     C1 - H4    
     5     24      1 ;     C1 - H5    
     6      9      1 ;     C2 - C5    
     6     11      1 ;     C2 - C7    
     6     14      1 ;     C2 - C10   
     7      5      1 ;     C3 - C1    
     7     12      1 ;     C3 - C8    
     7     17      1 ;     C3 - C13   
     7     18      1 ;     C3 - C14   
     7     25      1 ;     C3 - H6    
     7     26      1 ;     C3 - H7    
     8      9      1 ;     C4 - C5    
     8     12      1 ;     C4 - C8    
     8     14      1 ;     C4 - C10   
     9     19      1 ;     C5 - C15   
     9     22      1 ;     C5 - H3    
     9     27      1 ;     C5 - H8    
     9     28      1 ;     C5 - H9    
    10     11      1 ;     C6 - C7    
    10     12      1 ;     C6 - C8    
    11     15      1 ;     C7 - C11   
    11     16      1 ;     C7 - C12   
    12     21      1 ;     C8 - H2    
    12     24      1 ;     C8 - H5    
    14     20      1 ;    C10 - H1    
    14     21      1 ;    C10 - H2    
    14     23      1 ;    C10 - H4    
    15     18      1 ;    C11 - C14   
    15     26      1 ;    C11 - H7    
    15     29      1 ;    C11 - H10   
    16     17      1 ;    C12 - C13   
    16     25      1 ;    C12 - H6    
    16     29      1 ;    C12 - H10   
    17     28      1 ;    C13 - H9    
    18     27      1 ;    C14 - H8    
    19     25      1 ;    C15 - H6    
    19     26      1 ;    C15 - H7    
    25     27      1 ;     H6 - H8    
    26     28      1 ;     H7 - H9    
    27     29      1 ;     H8 - H10   
    28     29      1 ;     H9 - H10   

[ angles ]
;   ai     aj     ak    funct   theta         cth
     1      6      5      1    1.1920e+02    5.8241e+02 ;     O1 - C2     - C1    
     1      6     12      1    1.1920e+02    5.8241e+02 ;     O1 - C2     - C8    
     1      7      9      1    1.1475e+02    5.8158e+02 ;     O1 - C3     - C5    
     1      7     11      1    1.2030e+02    5.8660e+02 ;     O1 - C3     - C7    
     2     10      5      1    1.1990e+02    5.8158e+02 ;     O2 - C6     - C1    
     2     10     14      1    1.1990e+02    5.8158e+02 ;     O2 - C6     - C10   
     3      8      5      1    1.2260e+02    5.7488e+02 ;     O3 - C4     - C1    
     3      8     11      1    1.2393e+02    5.7823e+02 ;     O3 - C4     - C7    
     4     13     12      1    1.1990e+02    5.8158e+02 ;     O4 - C9     - C8    
     4     13     14      1    1.1990e+02    5.8158e+02 ;     O4 - C9     - C10   
     5      6     12      1    1.2002e+02    5.5731e+02 ;     C1 - C2     - C8    
     5      8     11      1    1.1600e+02    5.3639e+02 ;     C1 - C4     - C7    
     5     10     14      1    1.2002e+02    5.5731e+02 ;     C1 - C6     - C10   
     6      1      7      1    1.1308e+02    5.4810e+02 ;     C2 - O1     - C3    
     6      5      8      1    1.2033e+02    5.3806e+02 ;     C2 - C1     - C4    
     6      5     10      1    1.2002e+02    5.5731e+02 ;     C2 - C1     - C6    
     6     12     13      1    1.2002e+02    5.5731e+02 ;     C2 - C8     - C9    
     6     12     23      1    1.1988e+02    4.0334e+02 ;     C2 - C8     - H4    
     7      9     15      1    1.2079e+02    5.4392e+02 ;     C3 - C5     - C11   
     7      9     16      1    1.2079e+02    5.4392e+02 ;     C3 - C5     - C12   
     7     11      8      1    1.2135e+02    5.4476e+02 ;     C3 - C7     - C4    
     7     11     22      1    1.2176e+02    4.0585e+02 ;     C3 - C7     - H3    
     8      5     10      1    1.2033e+02    5.3806e+02 ;     C4 - C1     - C6    
     8     11     22      1    1.1664e+02    3.9246e+02 ;     C4 - C7     - H3    
     9      7     11      1    1.1351e+02    5.6568e+02 ;     C5 - C3     - C7    
     9     15     17      1    1.2002e+02    5.5731e+02 ;     C5 - C11    - C13   
     9     15     25      1    1.1988e+02    4.0334e+02 ;     C5 - C11    - H6    
     9     16     18      1    1.2002e+02    5.5731e+02 ;     C5 - C12    - C14   
     9     16     26      1    1.1988e+02    4.0334e+02 ;     C5 - C12    - H7    
    10      2     20      1    1.0858e+02    4.1003e+02 ;     C6 - O2     - H1    
    10     14     13      1    1.2002e+02    5.5731e+02 ;     C6 - C10    - C9    
    10     14     24      1    1.1988e+02    4.0334e+02 ;     C6 - C10    - H5    
    12     13     14      1    1.2002e+02    5.5731e+02 ;     C8 - C9     - C10   
    13      4     21      1    1.0858e+02    4.1003e+02 ;     C9 - O4     - H2    
    13     12     23      1    1.1988e+02    4.0334e+02 ;     C9 - C8     - H4    
    13     14     24      1    1.1988e+02    4.0334e+02 ;     C9 - C10    - H5    
    15      9     16      1    1.2002e+02    5.5731e+02 ;    C11 - C5     - C12   
    15     17     19      1    1.2002e+02    5.5731e+02 ;    C11 - C13    - C15   
    15     17     27      1    1.1988e+02    4.0334e+02 ;    C11 - C13    - H8    
    16     18     19      1    1.2002e+02    5.5731e+02 ;    C12 - C14    - C15   
    16     18     28      1    1.1988e+02    4.0334e+02 ;    C12 - C14    - H9    
    17     15     25      1    1.1988e+02    4.0334e+02 ;    C13 - C11    - H6    
    17     19     18      1    1.2002e+02    5.5731e+02 ;    C13 - C15    - C14   
    17     19     29      1    1.1988e+02    4.0334e+02 ;    C13 - C15    - H10   
    18     16     26      1    1.1988e+02    4.0334e+02 ;    C14 - C12    - H7    
    18     19     29      1    1.1988e+02    4.0334e+02 ;    C14 - C15    - H10   
    19     17     27      1    1.1988e+02    4.0334e+02 ;    C15 - C13    - H8    
    19     18     28      1    1.1988e+02    4.0334e+02 ;    C15 - C14    - H9    

[ dihedrals ] ; propers
; for gromacs 4.5 or higher, using funct 9
;    i      j      k      l   func   phase     kd      pn
     1      6      5      8      9   180.00  15.16700   2 ;     O1-    C2-    C1-    C4
     1      6      5     10      9   180.00  15.16700   2 ;     O1-    C2-    C1-    C6
     1      6     12     13      9   180.00  15.16700   2 ;     O1-    C2-    C8-    C9
     1      6     12     23      9   180.00  15.16700   2 ;     O1-    C2-    C8-    H4
     1      7      9     15      9   180.00   2.92880   2 ;     O1-    C3-    C5-   C11
     1      7      9     16      9   180.00   2.92880   2 ;     O1-    C3-    C5-   C12
     1      7     11      8      9   180.00  16.73600   2 ;     O1-    C3-    C7-    C4
     1      7     11     22      9   180.00  16.73600   2 ;     O1-    C3-    C7-    H3
     2     10      5      6      9   180.00  15.16700   2 ;     O2-    C6-    C1-    C2
     2     10      5      8      9   180.00  15.16700   2 ;     O2-    C6-    C1-    C4
     2     10     14     13      9   180.00  15.16700   2 ;     O2-    C6-   C10-    C9
     2     10     14     24      9   180.00  15.16700   2 ;     O2-    C6-   C10-    H5
     3      8      5      6      9   180.00   4.18400   2 ;     O3-    C4-    C1-    C2
     3      8      5     10      9   180.00   4.18400   2 ;     O3-    C4-    C1-    C6
     3      8     11      7      9   180.00  12.02900   2 ;     O3-    C4-    C7-    C3
     3      8     11     22      9   180.00  12.02900   2 ;     O3-    C4-    C7-    H3
     4     13     12      6      9   180.00  15.16700   2 ;     O4-    C9-    C8-    C2
     4     13     12     23      9   180.00  15.16700   2 ;     O4-    C9-    C8-    H4
     4     13     14     10      9   180.00  15.16700   2 ;     O4-    C9-   C10-    C6
     4     13     14     24      9   180.00  15.16700   2 ;     O4-    C9-   C10-    H5
     5      6     12     13      9   180.00  15.16700   2 ;     C1-    C2-    C8-    C9
     5      6     12     23      9   180.00  15.16700   2 ;     C1-    C2-    C8-    H4
     5      8     11      7      9   180.00  12.02900   2 ;     C1-    C4-    C7-    C3
     5      8     11     22      9   180.00  12.02900   2 ;     C1-    C4-    C7-    H3
     5     10      2     20      9   180.00   3.76560   2 ;     C1-    C6-    O2-    H1
     5     10     14     13      9   180.00  15.16700   2 ;     C1-    C6-   C10-    C9
     5     10     14     24      9   180.00  15.16700   2 ;     C1-    C6-   C10-    H5
     6      1      7      9      9   180.00   4.39320   2 ;     C2-    O1-    C3-    C5
     6      1      7     11      9   180.00   4.39320   2 ;     C2-    O1-    C3-    C7
     6      5      8     11      9   180.00   4.18400   2 ;     C2-    C1-    C4-    C7
     6      5     10     14      9   180.00  15.16700   2 ;     C2-    C1-    C6-   C10
     6     12     13     14      9   180.00  15.16700   2 ;     C2-    C8-    C9-   C10
     7      1      6      5      9   180.00   3.76560   2 ;     C3-    O1-    C2-    C1
     7      1      6     12      9   180.00   3.76560   2 ;     C3-    O1-    C2-    C8
     7      9     15     17      9   180.00  15.16700   2 ;     C3-    C5-   C11-   C13
     7      9     15     25      9   180.00  15.16700   2 ;     C3-    C5-   C11-    H6
     7      9     16     18      9   180.00  15.16700   2 ;     C3-    C5-   C12-   C14
     7      9     16     26      9   180.00  15.16700   2 ;     C3-    C5-   C12-    H7
     8      5      6     12      9   180.00  15.16700   2 ;     C4-    C1-    C2-    C8
     8      5     10     14      9   180.00  15.16700   2 ;     C4-    C1-    C6-   C10
     8     11      7      9      9   180.00  16.73600   2 ;     C4-    C7-    C3-    C5
     9      7     11     22      9   180.00  16.73600   2 ;     C5-    C3-    C7-    H3
     9     15     17     19      9   180.00  15.16700   2 ;     C5-   C11-   C13-   C15
     9     15     17     27      9   180.00  15.16700   2 ;     C5-   C11-   C13-    H8
     9     16     18     19      9   180.00  15.16700   2 ;     C5-   C12-   C14-   C15
     9     16     18     28      9   180.00  15.16700   2 ;     C5-   C12-   C14-    H9
    10      5      6     12      9   180.00  15.16700   2 ;     C6-    C1-    C2-    C8
    10      5      8     11      9   180.00   4.18400   2 ;     C6-    C1-    C4-    C7
    10     14     13     12      9   180.00  15.16700   2 ;     C6-   C10-    C9-    C8
    11      7      9     15      9   180.00   2.92880   2 ;     C7-    C3-    C5-   C11
    11      7      9     16      9   180.00   2.92880   2 ;     C7-    C3-    C5-   C12
    12     13      4     21      9   180.00   3.76560   2 ;     C8-    C9-    O4-    H2
    12     13     14     24      9   180.00  15.16700   2 ;     C8-    C9-   C10-    H5
    14     10      2     20      9   180.00   3.76560   2 ;    C10-    C6-    O2-    H1
    14     13      4     21      9   180.00   3.76560   2 ;    C10-    C9-    O4-    H2
    14     13     12     23      9   180.00  15.16700   2 ;    C10-    C9-    C8-    H4
    15      9     16     18      9   180.00  15.16700   2 ;    C11-    C5-   C12-   C14
    15      9     16     26      9   180.00  15.16700   2 ;    C11-    C5-   C12-    H7
    15     17     19     18      9   180.00  15.16700   2 ;    C11-   C13-   C15-   C14
    15     17     19     29      9   180.00  15.16700   2 ;    C11-   C13-   C15-   H10
    16      9     15     17      9   180.00  15.16700   2 ;    C12-    C5-   C11-   C13
    16      9     15     25      9   180.00  15.16700   2 ;    C12-    C5-   C11-    H6
    16     18     19     17      9   180.00  15.16700   2 ;    C12-   C14-   C15-   C13
    16     18     19     29      9   180.00  15.16700   2 ;    C12-   C14-   C15-   H10
    17     19     18     28      9   180.00  15.16700   2 ;    C13-   C15-   C14-    H9
    18     19     17     27      9   180.00  15.16700   2 ;    C14-   C15-   C13-    H8
    19     17     15     25      9   180.00  15.16700   2 ;    C15-   C13-   C11-    H6
    19     18     16     26      9   180.00  15.16700   2 ;    C15-   C14-   C12-    H7
    25     15     17     27      9   180.00  15.16700   2 ;     H6-   C11-   C13-    H8
    26     16     18     28      9   180.00  15.16700   2 ;     H7-   C12-   C14-    H9
    27     17     19     29      9   180.00  15.16700   2 ;     H8-   C13-   C15-   H10
    28     18     19     29      9   180.00  15.16700   2 ;     H9-   C14-   C15-   H10

[ dihedrals ] ; impropers
; treated as propers in GROMACS to use correct AMBER analytical function
;    i      j      k      l   func   phase     kd      pn
     1      6     12      5      4   180.00   4.60240   2 ;     O1-    C2-    C8-    C1
     1      7     11      9      4   180.00   4.60240   2 ;     O1-    C3-    C7-    C5
     5     11      8      3      4   180.00  43.93200   2 ;     C1-    C7-    C4-    O3
     5     14     10      2      4   180.00   4.60240   2 ;     C1-   C10-    C6-    O2
     6     13     12     23      4   180.00   4.60240   2 ;     C2-    C9-    C8-    H4
     8      6      5     10      4   180.00   4.60240   2 ;     C4-    C2-    C1-    C6
     8      7     11     22      4   180.00   4.60240   2 ;     C4-    C3-    C7-    H3
     9     17     15     25      4   180.00   4.60240   2 ;     C5-   C13-   C11-    H6
     9     18     16     26      4   180.00   4.60240   2 ;     C5-   C14-   C12-    H7
    10     13     14     24      4   180.00   4.60240   2 ;     C6-    C9-   C10-    H5
    12     14     13      4      4   180.00   4.60240   2 ;     C8-   C10-    C9-    O4
    15     16      9      7      4   180.00   4.60240   2 ;    C11-   C12-    C5-    C3
    15     19     17     27      4   180.00   4.60240   2 ;    C11-   C15-   C13-    H8
    16     19     18     28      4   180.00   4.60240   2 ;    C12-   C15-   C14-    H9
    17     18     19     29      4   180.00   4.60240   2 ;    C13-   C14-   C15-   H10
