UNL_GMX.gro created by acpype (v: 2023.10.27) on Thu Jun 25 19:54:12 2026
 29
    1  MOL   O1    1   0.364   1.393   0.316
    1  MOL   O2    2  -0.060   1.589   0.445
    1  MOL   O3    3   0.008   1.332   0.504
    1  MOL   O4    4   0.268   1.842   0.207
    1  MOL   C1    5   0.149   1.485   0.385
    1  MOL   C2    6   0.274   1.497   0.323
    1  MOL   C3    7   0.325   1.270   0.366
    1  MOL   C4    8   0.112   1.355   0.444
    1  MOL   C5    9   0.425   1.165   0.350
    1  MOL   C6   10   0.063   1.597   0.387
    1  MOL   C7   11   0.209   1.246   0.427
    1  MOL   C8   12   0.313   1.618   0.265
    1  MOL   C9   13   0.226   1.726   0.267
    1  MOL  C10   14   0.101   1.717   0.327
    1  MOL  C11   15   0.401   1.057   0.264
    1  MOL  C12   16   0.547   1.172   0.418
    1  MOL  C13   17   0.500   0.960   0.244
    1  MOL  C14   18   0.646   1.076   0.397
    1  MOL  C15   19   0.623   0.971   0.309
    1  MOL   H1   20  -0.120   1.668   0.446
    1  MOL   H2   21   0.209   1.921   0.206
    1  MOL   H3   22   0.186   1.145   0.464
    1  MOL   H4   23   0.412   1.627   0.218
    1  MOL   H5   24   0.034   1.804   0.328
    1  MOL   H6   25   0.305   1.048   0.212
    1  MOL   H7   26   0.565   1.254   0.489
    1  MOL   H8   27   0.481   0.875   0.176
    1  MOL   H9   28   0.742   1.084   0.450
    1  MOL  H10   29   0.701   0.896   0.291
   17.25000    20.91400     6.56200
